 # Graphene Coordinate Generator

   112  atoms
  1 atom types
  -8.5139999999999993        8.5139999999999993      xlo xhi
  -8.6022301813960080        8.6022301813960080      ylo yhi
  -25.806690544188022        25.806690544188022      zlo zhi

  Masses

  1 12.010700  # C

  Atoms

     1     1     1   0.0       -7.095000       -7.987785        0.000000
     2     1     1   0.0       -5.676000       -7.987785        0.000000
     3     1     1   0.0       -2.838000       -7.987785        0.000000
     4     1     1   0.0       -1.419000       -7.987785        0.000000
     5     1     1   0.0        1.419000       -7.987785        0.000000
     6     1     1   0.0        2.838000       -7.987785        0.000000
     7     1     1   0.0        5.676000       -7.987785        0.000000
     8     1     1   0.0        7.095000       -7.987785        0.000000
     9     1     1   0.0       -7.804500       -6.758895        0.000000
    10     1     1   0.0       -4.966500       -6.758895        0.000000
    11     1     1   0.0       -3.547500       -6.758895        0.000000
    12     1     1   0.0       -0.709500       -6.758895        0.000000
    13     1     1   0.0        0.709500       -6.758895        0.000000
    14     1     1   0.0        3.547500       -6.758895        0.000000
    15     1     1   0.0        4.966500       -6.758895        0.000000
    16     1     1   0.0        7.804500       -6.758895        0.000000
    17     1     1   0.0       -7.095000       -5.530005        0.000000
    18     1     1   0.0       -5.676000       -5.530005        0.000000
    19     1     1   0.0       -2.838000       -5.530005        0.000000
    20     1     1   0.0       -1.419000       -5.530005        0.000000
    21     1     1   0.0        1.419000       -5.530005        0.000000
    22     1     1   0.0        2.838000       -5.530005        0.000000
    23     1     1   0.0        5.676000       -5.530005        0.000000
    24     1     1   0.0        7.095000       -5.530005        0.000000
    25     1     1   0.0       -7.804500       -4.301115        0.000000
    26     1     1   0.0       -4.966500       -4.301115        0.000000
    27     1     1   0.0       -3.547500       -4.301115        0.000000
    28     1     1   0.0       -0.709500       -4.301115        0.000000
    29     1     1   0.0        0.709500       -4.301115        0.000000
    30     1     1   0.0        3.547500       -4.301115        0.000000
    31     1     1   0.0        4.966500       -4.301115        0.000000
    32     1     1   0.0        7.804500       -4.301115        0.000000
    33     1     1   0.0       -7.095000       -3.072225        0.000000
    34     1     1   0.0       -5.676000       -3.072225        0.000000
    35     1     1   0.0       -2.838000       -3.072225        0.000000
    36     1     1   0.0       -1.419000       -3.072225        0.000000
    37     1     1   0.0        1.419000       -3.072225        0.000000
    38     1     1   0.0        2.838000       -3.072225        0.000000
    39     1     1   0.0        5.676000       -3.072225        0.000000
    40     1     1   0.0        7.095000       -3.072225        0.000000
    41     1     1   0.0       -7.804500       -1.843335        0.000000
    42     1     1   0.0       -4.966500       -1.843335        0.000000
    43     1     1   0.0       -3.547500       -1.843335        0.000000
    44     1     1   0.0       -0.709500       -1.843335        0.000000
    45     1     1   0.0        0.709500       -1.843335        0.000000
    46     1     1   0.0        3.547500       -1.843335        0.000000
    47     1     1   0.0        4.966500       -1.843335        0.000000
    48     1     1   0.0        7.804500       -1.843335        0.000000
    49     1     1   0.0       -7.095000       -0.614445        0.000000
    50     1     1   0.0       -5.676000       -0.614445        0.000000
    51     1     1   0.0       -2.838000       -0.614445        0.000000
    52     1     1   0.0       -1.419000       -0.614445        0.000000
    53     1     1   0.0        1.419000       -0.614445        0.000000
    54     1     1   0.0        2.838000       -0.614445        0.000000
    55     1     1   0.0        5.676000       -0.614445        0.000000
    56     1     1   0.0        7.095000       -0.614445        0.000000
    57     1     1   0.0       -7.804500        0.614445        0.000000
    58     1     1   0.0       -4.966500        0.614445        0.000000
    59     1     1   0.0       -3.547500        0.614445        0.000000
    60     1     1   0.0       -0.709500        0.614445        0.000000
    61     1     1   0.0        0.709500        0.614445        0.000000
    62     1     1   0.0        3.547500        0.614445        0.000000
    63     1     1   0.0        4.966500        0.614445        0.000000
    64     1     1   0.0        7.804500        0.614445        0.000000
    65     1     1   0.0       -7.095000        1.843335        0.000000
    66     1     1   0.0       -5.676000        1.843335        0.000000
    67     1     1   0.0       -2.838000        1.843335        0.000000
    68     1     1   0.0       -1.419000        1.843335        0.000000
    69     1     1   0.0        1.419000        1.843335        0.000000
    70     1     1   0.0        2.838000        1.843335        0.000000
    71     1     1   0.0        5.676000        1.843335        0.000000
    72     1     1   0.0        7.095000        1.843335        0.000000
    73     1     1   0.0       -7.804500        3.072225        0.000000
    74     1     1   0.0       -4.966500        3.072225        0.000000
    75     1     1   0.0       -3.547500        3.072225        0.000000
    76     1     1   0.0       -0.709500        3.072225        0.000000
    77     1     1   0.0        0.709500        3.072225        0.000000
    78     1     1   0.0        3.547500        3.072225        0.000000
    79     1     1   0.0        4.966500        3.072225        0.000000
    80     1     1   0.0        7.804500        3.072225        0.000000
    81     1     1   0.0       -7.095000        4.301115        0.000000
    82     1     1   0.0       -5.676000        4.301115        0.000000
    83     1     1   0.0       -2.838000        4.301115        0.000000
    84     1     1   0.0       -1.419000        4.301115        0.000000
    85     1     1   0.0        1.419000        4.301115        0.000000
    86     1     1   0.0        2.838000        4.301115        0.000000
    87     1     1   0.0        5.676000        4.301115        0.000000
    88     1     1   0.0        7.095000        4.301115        0.000000
    89     1     1   0.0       -7.804500        5.530005        0.000000
    90     1     1   0.0       -4.966500        5.530005        0.000000
    91     1     1   0.0       -3.547500        5.530005        0.000000
    92     1     1   0.0       -0.709500        5.530005        0.000000
    93     1     1   0.0        0.709500        5.530005        0.000000
    94     1     1   0.0        3.547500        5.530005        0.000000
    95     1     1   0.0        4.966500        5.530005        0.000000
    96     1     1   0.0        7.804500        5.530005        0.000000
    97     1     1   0.0       -7.095000        6.758895        0.000000
    98     1     1   0.0       -5.676000        6.758895        0.000000
    99     1     1   0.0       -2.838000        6.758895        0.000000
   100     1     1   0.0       -1.419000        6.758895        0.000000
   101     1     1   0.0        1.419000        6.758895        0.000000
   102     1     1   0.0        2.838000        6.758895        0.000000
   103     1     1   0.0        5.676000        6.758895        0.000000
   104     1     1   0.0        7.095000        6.758895        0.000000
   105     1     1   0.0       -7.804500        7.987785        0.000000
   106     1     1   0.0       -4.966500        7.987785        0.000000
   107     1     1   0.0       -3.547500        7.987785        0.000000
   108     1     1   0.0       -0.709500        7.987785        0.000000
   109     1     1   0.0        0.709500        7.987785        0.000000
   110     1     1   0.0        3.547500        7.987785        0.000000
   111     1     1   0.0        4.966500        7.987785        0.000000
   112     1     1   0.0        7.804500        7.987785        0.000000
